/*--------------------------------*- C++ -*----------------------------------*\
| =========                 |                                                 |
| \\      /  F ield         | OpenFOAM: The Open Source CFD Toolbox           |
|  \\    /   O peration     | Version:  4.x                                   |
|   \\  /    A nd           | Web:      www.OpenFOAM.org                      |
|    \\/     M anipulation  |                                                 |
\*---------------------------------------------------------------------------*/
FoamFile
{
    version     2.0;
    format      ascii;
    class       polyBoundaryMesh;
    location    "constant/polyMesh";
    object      boundary;
}
// * * * * * * * * * * * * * * * * * * * * * * * * * * * * * * * * * * * * * //

5
(
    walls
    {
        type            wall;
        inGroups        1(wall);
        nFaces          2008;
        startFace       1009675;
    }
    inlet
    {
        type            patch;
        nFaces          1004;
        startFace       1011683;
    }
    outlet
    {
        type            patch;
        nFaces          1004;
        startFace       1012687;
    }
    frontandback
    {
        type            empty;
        inGroups        1(empty);
        nFaces          1057598;
        startFace       1013691;
    }
    solidwalls
    {
        type            wall;
        inGroups        1(wall);
        nFaces          69704;
        startFace       2071289;
    }
)

// ************************************************************************* //
